10447462
  -OEChem-01272118182D

 43 45  0     0  0  0  0  0  0999 V2000
    4.4487    1.5000    0.0000 O   0  0  0  0  0  0  0  0  0  0  0  0
   13.1891    0.3047    0.0000 O   0  0  0  0  0  0  0  0  0  0  0  0
   13.1891   -1.3047    0.0000 O   0  0  0  0  0  0  0  0  0  0  0  0
    3.5827   -0.0000    0.0000 N   0  0  0  0  0  0  0  0  0  0  0  0
    2.0000   -0.3364    0.0000 C   0  0  0  0  0  0  0  0  0  0  0  0
    2.5000   -1.2024    0.0000 C   0  0  0  0  0  0  0  0  0  0  0  0
    2.6691    0.4067    0.0000 C   0  0  0  0  0  0  0  0  0  0  0  0
    3.4782   -0.9945    0.0000 C   0  0  0  0  0  0  0  0  0  0  0  0
    4.4487    0.5000    0.0000 C   0  0  0  0  0  0  0  0  0  0  0  0
    5.3147   -0.0000    0.0000 C   0  0  0  0  0  0  0  0  0  0  0  0
    9.6448    0.5000    0.0000 C   0  0  0  0  0  0  0  0  0  0  0  0
   10.5109    0.0000    0.0000 C   0  0  0  0  0  0  0  0  0  0  0  0
    8.7788    0.0000    0.0000 C   0  0  0  0  0  0  0  0  0  0  0  0
   11.3769    0.5000    0.0000 C   0  0  0  0  0  0  0  0  0  0  0  0
   12.2429    0.0000    0.0000 C   0  0  0  0  0  0  0  0  0  0  0  0
   12.2429   -1.0000    0.0000 C   0  0  0  0  0  0  0  0  0  0  0  0
   10.5109   -1.0000    0.0000 C   0  0  0  0  0  0  0  0  0  0  0  0
    6.1808    0.5000    0.0000 C   0  0  0  0  0  0  0  0  0  0  0  0
    7.9128    0.5000    0.0000 C   0  0  0  0  0  0  0  0  0  0  0  0
   11.3769   -1.5000    0.0000 C   0  0  0  0  0  0  0  0  0  0  0  0
    7.0468   -0.0000    0.0000 C   0  0  0  0  0  0  0  0  0  0  0  0
   13.7728   -0.5000    0.0000 C   0  0  0  0  0  0  0  0  0  0  0  0
    1.5851    0.1243    0.0000 H   0  0  0  0  0  0  0  0  0  0  0  0
    1.4984   -0.7008    0.0000 H   0  0  0  0  0  0  0  0  0  0  0  0
    1.9336   -1.4546    0.0000 H   0  0  0  0  0  0  0  0  0  0  0  0
    2.6916   -1.7921    0.0000 H   0  0  0  0  0  0  0  0  0  0  0  0
    2.9791    0.9437    0.0000 H   0  0  0  0  0  0  0  0  0  0  0  0
    2.1675    0.7712    0.0000 H   0  0  0  0  0  0  0  0  0  0  0  0
    3.5430   -1.6111    0.0000 H   0  0  0  0  0  0  0  0  0  0  0  0
    4.0982   -0.9945    0.0000 H   0  0  0  0  0  0  0  0  0  0  0  0
    5.3147   -0.6200    0.0000 H   0  0  0  0  0  0  0  0  0  0  0  0
   10.0434    0.9749    0.0000 H   0  0  0  0  0  0  0  0  0  0  0  0
    9.2463    0.9749    0.0000 H   0  0  0  0  0  0  0  0  0  0  0  0
    8.3803   -0.4749    0.0000 H   0  0  0  0  0  0  0  0  0  0  0  0
    9.1774   -0.4749    0.0000 H   0  0  0  0  0  0  0  0  0  0  0  0
   11.3769    1.1200    0.0000 H   0  0  0  0  0  0  0  0  0  0  0  0
    9.9739   -1.3100    0.0000 H   0  0  0  0  0  0  0  0  0  0  0  0
    6.1808    1.1200    0.0000 H   0  0  0  0  0  0  0  0  0  0  0  0
   11.3769   -2.1200    0.0000 H   0  0  0  0  0  0  0  0  0  0  0  0
    7.9128    1.1200    0.0000 H   0  0  0  0  0  0  0  0  0  0  0  0
    7.0468   -0.6200    0.0000 H   0  0  0  0  0  0  0  0  0  0  0  0
   14.2336   -0.9147    0.0000 H   0  0  0  0  0  0  0  0  0  0  0  0
   14.2336   -0.0853    0.0000 H   0  0  0  0  0  0  0  0  0  0  0  0
  1  9  2  0  0  0  0
  2 15  1  0  0  0  0
  2 22  1  0  0  0  0
  3 16  1  0  0  0  0
  3 22  1  0  0  0  0
  4  7  1  0  0  0  0
  4  8  1  0  0  0  0
  4  9  1  0  0  0  0
  5  6  1  0  0  0  0
  5  7  1  0  0  0  0
  5 23  1  0  0  0  0
  5 24  1  0  0  0  0
  6  8  1  0  0  0  0
  6 25  1  0  0  0  0
  6 26  1  0  0  0  0
  7 27  1  0  0  0  0
  7 28  1  0  0  0  0
  8 29  1  0  0  0  0
  8 30  1  0  0  0  0
  9 10  1  0  0  0  0
 10 18  2  0  0  0  0
 10 31  1  0  0  0  0
 11 12  1  0  0  0  0
 11 13  1  0  0  0  0
 11 32  1  0  0  0  0
 11 33  1  0  0  0  0
 12 14  2  0  0  0  0
 12 17  1  0  0  0  0
 13 19  1  0  0  0  0
 13 34  1  0  0  0  0
 13 35  1  0  0  0  0
 14 15  1  0  0  0  0
 14 36  1  0  0  0  0
 15 16  2  0  0  0  0
 16 20  1  0  0  0  0
 17 20  2  0  0  0  0
 17 37  1  0  0  0  0
 18 21  1  0  0  0  0
 18 38  1  0  0  0  0
 19 21  2  0  0  0  0
 19 40  1  0  0  0  0
 20 39  1  0  0  0  0
 21 41  1  0  0  0  0
 22 42  1  0  0  0  0
 22 43  1  0  0  0  0
M  END
> <PUBCHEM_COMPOUND_CID>
10447462

> <PUBCHEM_COMPOUND_CANONICALIZED>
1

> <PUBCHEM_CACTVS_COMPLEXITY>
426

> <PUBCHEM_CACTVS_HBOND_ACCEPTOR>
3

> <PUBCHEM_CACTVS_HBOND_DONOR>
0

> <PUBCHEM_CACTVS_ROTATABLE_BOND>
5

> <PUBCHEM_CACTVS_SUBSKEYS>
AAADceB6MAAAAAAAAAAAAAAAAAAAAWJAAAAwAAAAAAAAAEgBAAAAHgAAAAAADATBmAcwDoMABACIAiFSEACCCAAgIAAIiAAOiMgdJiKEsRqkMCIkxhGOqYeAwLAOIAABAAAAQABAAAIAAACAAAAAAAAAAA==

> <PUBCHEM_IUPAC_OPENEYE_NAME>
(2E,4E)-7-(1,3-benzodioxol-5-yl)-1-pyrrolidin-1-yl-hepta-2,4-dien-1-one

> <PUBCHEM_IUPAC_CAS_NAME>
(2E,4E)-7-(1,3-benzodioxol-5-yl)-1-(1-pyrrolidinyl)-1-hepta-2,4-dienone

> <PUBCHEM_IUPAC_NAME_MARKUP>
(2<I>E</I>,4<I>E</I>)-7-(1,3-benzodioxol-5-yl)-1-pyrrolidin-1-ylhepta-2,4-dien-1-one

> <PUBCHEM_IUPAC_NAME>
(2E,4E)-7-(1,3-benzodioxol-5-yl)-1-pyrrolidin-1-ylhepta-2,4-dien-1-one

> <PUBCHEM_IUPAC_SYSTEMATIC_NAME>
(2E,4E)-7-(1,3-benzodioxol-5-yl)-1-pyrrolidin-1-yl-hepta-2,4-dien-1-one

> <PUBCHEM_IUPAC_TRADITIONAL_NAME>
(2E,4E)-7-(1,3-benzodioxol-5-yl)-1-pyrrolidino-hepta-2,4-dien-1-one

> <PUBCHEM_IUPAC_INCHI>
InChI=1S/C18H21NO3/c20-18(19-11-5-6-12-19)8-4-2-1-3-7-15-9-10-16-17(13-15)22-14-21-16/h1-2,4,8-10,13H,3,5-7,11-12,14H2/b2-1+,8-4+

> <PUBCHEM_IUPAC_INCHIKEY>
IODPUHWFWZSHCM-AIWOWGKTSA-N

> <PUBCHEM_XLOGP3_AA>
3.3

> <PUBCHEM_EXACT_MASS>
299.152144

> <PUBCHEM_MOLECULAR_FORMULA>
C18H21NO3

> <PUBCHEM_MOLECULAR_WEIGHT>
299.4

> <PUBCHEM_OPENEYE_CAN_SMILES>
C1CCN(C1)C(=O)C=CC=CCCC2=CC3=C(C=C2)OCO3

> <PUBCHEM_OPENEYE_ISO_SMILES>
C1CCN(C1)C(=O)/C=C/C=C/CCC2=CC3=C(C=C2)OCO3

> <PUBCHEM_CACTVS_TPSA>
38.8

> <PUBCHEM_MONOISOTOPIC_WEIGHT>
299.152144

> <PUBCHEM_TOTAL_CHARGE>
0

> <PUBCHEM_HEAVY_ATOM_COUNT>
22

> <PUBCHEM_ATOM_DEF_STEREO_COUNT>
0

> <PUBCHEM_ATOM_UDEF_STEREO_COUNT>
0

> <PUBCHEM_BOND_DEF_STEREO_COUNT>
2

> <PUBCHEM_BOND_UDEF_STEREO_COUNT>
0

> <PUBCHEM_ISOTOPIC_ATOM_COUNT>
0

> <PUBCHEM_COMPONENT_COUNT>
1

> <PUBCHEM_CACTVS_TAUTO_COUNT>
-1

> <PUBCHEM_COORDINATE_TYPE>
1
5
255

> <PUBCHEM_BONDANNOTATIONS>
12  14  8
12  17  8
14  15  8
15  16  8
16  20  8
17  20  8

$$$$
